12
Lattice="15.529081344604492 1.6471078395843506 1.79314386844635 0.0 2.7451796531677246 0.0 0.0 0.0 4.4828596115112305" Properties=species:S:1:pos:R:3:forces:R:3:energies:R:1 original_dataset_index=8192 energy=-127.30499238458806 pbc="F F F"
W       -0.09168395      -0.95346636      -0.58573627       0.28876127       1.74127679      -3.38556481     -10.19683372
W        5.10135555       0.88902968      -0.05477232       0.48809403       0.00975555       0.59104514     -11.03079146
W        2.43124461       1.62355125      -0.32151753       2.91682378      -0.29840468       0.63641393     -10.66673184
W        3.83017373      -0.18830130       2.13535762       2.36090269       0.66805056      -0.82667599     -10.91177877
W        1.52675271       0.62752271       1.83782446      -4.32836090      -0.59970796      -0.18699893     -10.74554287
W        6.46107149       1.93726158       2.33392382       0.70065138      -0.69339272      -1.78361913     -11.07300783
W        7.78460217       0.14054108      -0.00776298      -0.05239462      -0.41844247       0.69385208     -11.05922038
W       12.63041973       1.35731459       0.60926658       7.15829373      -0.34794085      -4.95370896     -10.05558507
W       10.46541023       1.91970861      -0.17615539      -4.42108547       0.90485510       2.85492154     -10.51616238
W       11.86272621       0.16698292       2.44107962      -4.60069522       0.39289355       3.72103595     -10.06463460
W        9.18932247       1.00504506       2.24334431      -1.21841204       0.08863782      -1.46513791     -10.83316114
W       14.21855450       2.45552897       2.99372745       0.70742015      -1.44758033       4.10443858     -10.15154231
12
Lattice="13.493709564208984 1.3493709564208984 0.9541493058204651 0.0 4.497902870178223 0.0 0.0 0.0 3.180497646331787" Properties=species:S:1:pos:R:3:forces:R:3:energies:R:1 original_dataset_index=4103 energy=-132.70344382096263 pbc="F F F"
W        0.10322043      -0.00123739       0.02141635      -0.52044310       0.36621120       0.04631386     -10.83077220
W        2.26065540       2.26526093      -0.02435621       0.81552291       0.22399279       0.02945769     -11.18593833
W        2.33897424       0.03982664       1.56026518      -0.89195690      -0.63353165       0.24086680     -11.16340821
W        0.10248639       2.24931884       1.59087181      -0.53125085       0.23436438       0.48949920     -10.81394976
W        4.48150301       0.03726910      -0.00289006       0.69487194      -0.91540816      -0.23749430     -11.13535477
W        6.73762178       2.23804903      -0.01707345      -0.16634861       0.24945144       0.30053789     -11.16727116
W        6.71827602       0.00002081       1.60456777       0.29026558      -0.25699773      -0.18230433     -11.18890186
W        4.51535511       2.21770477       1.55549645      -0.13204598       1.08132427       0.25822737     -11.19519972
W        8.96086216      -0.00263827       0.02468885      -0.38356822      -0.22497750      -0.01835009     -11.20356028
W       11.12451172       2.25288010       0.00483727       0.90692352      -0.52965416      -0.23368039     -10.82861972
W       11.17081070      -0.02841393       1.59822333       0.21569629       0.13002461      -0.38868341     -10.82918482
W        8.95426941       2.22566843       1.62544596      -0.29766693       0.27520017      -0.30439068     -11.16128299
12
Lattice="15.529081344604492 1.6471078395843506 1.79314386844635 0.0 2.7451796531677246 0.0 0.0 0.0 4.4828596115112305" Properties=species:S:1:pos:R:3:forces:R:3:energies:R:1 original_dataset_index=8201 energy=-123.52553756494605 pbc="F F F"
W       -0.11357353      -0.77392459      -1.25870311       3.32346673      -0.41396791       6.46470933      -9.83246018
W        5.13542747       0.77780706      -0.04223051       0.00791452      -0.19352682      -2.03987637     -10.87368432
W        2.64918709       1.49567401      -0.81646889      -3.09979577      -1.04755249       2.85279211      -9.87863783
W        4.01000547      -0.31704214       2.14461589       2.26737920       1.78676743      -5.42563059     -10.11540829
W        1.60337174       0.35025257       1.09719312      -1.92055835       0.12825420       3.07563862     -10.44512755
W        6.47231913       1.74155331       2.00065851       0.50189902      -0.17918521       3.64514698     -10.84864613
W        7.65773773       0.00094280      -0.04446623       0.42512913      -0.21960795      -0.44451488     -10.93028567
W       12.65067863       1.95084679       1.29606533       4.35166473       0.32897047      -6.78342481      -9.74443867
W       10.18844032       1.98517704       0.26794666      -0.21050086       0.03077054       0.85466423     -10.69760172
W       11.75198269       0.63082492       2.94718027      -3.12264972      -0.89728347       4.76701680      -9.78840840
W        8.96781826       0.95511997       2.39897370       0.48997271      -0.04187802      -0.85315370     -10.81854998
W       14.43655396       2.18348742       3.45781493      -3.01392179       0.71823955      -6.11336761      -9.55228882
12
Lattice="15.581192970275879 1.652635097503662 2.2489514350891113 0.0 2.75439190864563 0.0 0.0 0.0 4.497902870178223" Properties=species:S:1:pos:R:3:forces:R:3:energies:R:1 original_dataset_index=6156 energy=-122.09153341762926 pbc="F F F"
W       -0.07635864      -0.98348415      -1.24054837       1.10536441      -0.05335352       5.13382009     -10.06584120
W        5.11599874       0.75948542      -0.07026845       0.08413322       0.46218598       1.28174304     -10.81443400
W        2.25803280       1.52676773      -0.01946565      10.47646642      -3.08505407     -10.46526637      -8.86992623
W        3.64879656      -0.11873970       2.32079148       2.45714915       0.01512576      -1.22632479     -10.58090652
W        1.20611393       0.00027215       1.31606126      -6.98562561       3.30859913       8.84621575      -8.60547146
W        6.47340631       1.77002859       2.26055551      -0.24536417       0.30332929      -0.43278459     -11.03850424
W        7.85767889       0.04570146       0.02086149      -0.47109612       0.36761737       0.47104893     -11.12134164
W       13.17328453       1.58872259       0.62287652      -4.92864031      -1.09478010       3.16899935      -9.46943957
W       10.55750942       2.12376523      -0.01677692      -0.86234444       0.12534275       1.45242861     -10.75588032
W       12.03795815       0.43099013       2.39923859      -4.64940699      -0.03684891       3.02411818     -10.37003681
W        9.17359829       1.19333553       2.35461473       0.54262797      -0.85784028      -1.45447977     -10.92260540
W       14.27054405       2.68072271       3.54576898       3.47673505       0.54567646      -9.79951821      -9.47714604
1
Lattice="3.193533420562744 0.0 0.0 -0.21881411969661713 3.1721200942993164 0.0 1.5277729034423828 1.4761916399002075 1.5871338844299316" Properties=species:S:1:pos:R:3:forces:R:3:energies:R:1 original_dataset_index=13 energy=-11.125888133739762 pbc="F F F"
W        0.00000000       0.00000000       0.00000000      -0.00000000      -0.00000000      -0.00000000     -11.12588813
12
Lattice="13.493709564208984 1.3493709564208984 0.9541493058204651 0.0 4.497902870178223 0.0 0.0 0.0 3.180497646331787" Properties=species:S:1:pos:R:3:forces:R:3:energies:R:1 original_dataset_index=4117 energy=-127.93169336369972 pbc="F F F"
W        0.05773763       0.06501675      -0.10235805      -0.55952858      -1.45509662      -0.18346219     -10.63120592
W        2.30799747       2.34171891      -0.29885036      -1.32284270      -1.97181699       1.98883045     -11.02107494
W        2.36535025      -0.03672324       1.32641745      -3.21346069       1.18427255       1.98312717     -10.82310700
W        0.01441580       2.12215328       1.47367489      -0.07059736       1.46223110      -0.11798459     -10.59996414
W        4.39644480      -0.05618478       0.05615161       3.88980937       1.93088464      -2.02430400     -10.79481944
W        6.81347370       2.50762272      -0.13565299      -0.69524853      -3.30228390       1.77081369     -10.65354112
W        6.80424929      -0.02600742       1.44585764      -0.89433446       2.43351026       1.95133361     -10.72755440
W        4.53785706       2.28202128       1.70571089       0.65997966      -1.10208500      -2.35803318     -10.98312160
W        9.12355709       0.01978092       0.30572429      -4.69883108      -1.06499872      -2.68556681     -10.54301807
W       10.91646671       2.18264866       0.17321950       7.06078760       0.61926447       0.91529935     -10.29024575
W       11.00944233      -0.09260641       1.73034501       5.50711692       0.28171661       0.99801849     -10.39221463
W        9.12155437       2.18426824       1.86125338      -5.66285085       0.98440146      -2.23807122     -10.47182636
12
Lattice="15.529081344604492 1.6471078395843506 2.68971586227417 0.0 2.7451796531677246 0.0 0.0 0.0 4.4828596115112305" Properties=species:S:1:pos:R:3:forces:R:3:energies:R:1 original_dataset_index=8216 energy=-125.10498432714067 pbc="F F F"
W        0.17875256      -0.27688706       0.13034528       5.84422854      -4.29459156       8.08330697      -9.42601086
W        5.02077103       0.72934806       0.06192935       4.19446395      -0.55521615       1.51587652     -10.84137419
W        2.77626538       1.43601263       0.53905630      -5.27059610       0.26748393      -5.61413376     -10.57509519
W        3.75423479      -0.31934828       2.43893242       2.69519032       0.32770319       3.65544507     -10.60935217
W        1.26571202       0.38691431       2.58314157       1.16807312       2.13381709      -1.65183063     -10.17612607
W        6.35652590       1.71622288       2.37476015       1.16170981       0.20064081       0.00866649     -10.95105751
W        7.77500439       0.10496388       0.21312247      -0.26210806      -0.88855658      -1.28529723     -10.85385496
W       13.03996468       1.47838080      -0.62546593      -1.42580219      -1.54373053       1.72334539     -10.44804294
W       10.50174809       2.13340497      -0.09216030      -3.28182205      -1.08380498      -4.24551476     -10.51126014
W       11.47005177       0.36205620       1.75255990       5.01745774       0.57424423       4.83363709     -10.40814647
W        9.17555618       0.96454680       2.33538508      -3.61384192       1.30820537      -0.45556230     -10.81736290
W       14.09536362       2.26510382       1.73697305      -6.22695393       3.55380576      -6.56793894      -9.48730091
12
Lattice="15.581192970275879 1.652635097503662 2.698741912841797 0.0 2.75439190864563 0.0 0.0 0.0 4.497902870178223" Properties=species:S:1:pos:R:3:forces:R:3:energies:R:1 original_dataset_index=6178 energy=-128.97004517733373 pbc="F F F"
W        0.04410513      -0.45933747       0.73584825       1.10265432      -2.20958905       1.07092837     -10.61980436
W        5.25785208       0.86296880      -0.04331606       0.51927536      -0.72259317       1.82958118     -10.89929155
W        2.71427441       1.19638848       0.57033741      -2.83743846       0.63530675      -3.90928732     -10.54855173
W        3.80024672      -0.47820064       2.39153957       1.72525455       0.82944125       3.25345179     -10.59904270
W        1.11818874       0.32269171       2.89243436       2.95352014       0.23876374       0.49125526     -10.57064765
W        6.52367401       1.80187428       2.28700709      -0.90306690       0.80771030      -2.63398176     -10.83627140
W        7.87510538       0.15961130      -0.21011829      -0.55746343      -0.21541951       2.85952502     -10.99378053
W       13.18681145       1.43907201      -0.42100403      -4.87023575      -0.72997312      -3.09993210     -10.43744442
W       10.41642475       2.23400283      -0.32226616       0.54926257      -0.59088804       1.57311444     -10.96125525
W       11.54746056       0.44391459       1.92722619       1.57556651      -0.36308698      -0.38446621     -11.01603271
W        9.06133366       1.17626011       2.14147973       0.10232843      -0.03213429      -2.61842915     -11.01109415
W       14.15108490       2.31832147       1.54454136       0.64034266       2.35246247       1.56823985     -10.47682872
12
Lattice="15.581192970275879 1.652635097503662 3.1485321521759033 0.0 2.75439190864563 0.0 0.0 0.0 4.497902870178223" Properties=species:S:1:pos:R:3:forces:R:3:energies:R:1 original_dataset_index=6183 energy=-130.23724521741715 pbc="F F F"
W        0.38785189      -0.04900938       0.01189777       1.84335397      -1.42855768       1.94239555      -9.98734623
W        5.28399944       0.91057205      -0.01323140       0.03654567      -0.02712340      -0.00143122     -11.19279872
W        2.80977893       1.84941232       0.02348161      -0.31130983      -0.31418239      -0.30262191     -11.07449188
W        4.02072001      -0.02032451       2.26104689      -0.55440384       0.36536210      -0.17614816     -11.09524190
W        1.44003975       0.91664779       2.25337720       0.03795359       0.21528277       0.48273687     -10.68051780
W        6.52658081       1.84247768       2.21029115      -0.16161056      -0.30009174       0.59770876     -11.11682806
W        7.77027416      -0.03706904      -0.00066797       0.26209313       0.57160965      -0.19118911     -11.14741755
W       12.80108738       0.93027240      -0.00823547       0.60747905      -0.23559763      -0.05821541     -10.64122935
W       10.30609226       1.83010197      -0.02518578      -0.48948810       0.15027022       0.84655502     -11.08269808
W       11.47710800       0.03486776       2.26578712       0.12916150      -0.31573922      -0.51018054     -11.09060896
W        9.00875187       0.93777907       2.26548100       0.08176431      -0.30583892      -0.48730604     -11.15030472
W       13.86427689       1.87183928       2.24966693      -1.48153952       1.62460601      -2.14230417      -9.97776196
12
Lattice="15.581192970275879 1.652635097503662 3.1485321521759033 0.0 2.75439190864563 0.0 0.0 0.0 4.497902870178223" Properties=species:S:1:pos:R:3:forces:R:3:energies:R:1 original_dataset_index=6185 energy=-130.5320113553481 pbc="F F F"
W        0.14073059      -0.28400561       0.24816562       2.02180508      -0.63587474       2.15036891     -10.01209158
W        5.27774000       0.88461590      -0.05814707      -0.06656781       0.03665140       0.68588581     -11.20392827
W        2.72860837       1.84002507       0.06515802       0.27541783      -0.72760893      -0.48899404     -11.02787507
W        4.06887388      -0.03549744       2.27318597      -1.70184081       0.30302614      -0.50525604     -11.11230189
W        1.42136252       0.90174216       2.29539418       0.21250750      -0.03762416       1.63830775     -10.85533487
W        6.54715824       1.82009947       2.17746568       0.02714234      -0.25347188       0.46294353     -11.10338099
W        7.79229212      -0.07268560      -0.04607273      -0.32169868       0.83746181       0.66620358     -11.12174393
W       12.79192448       0.98230088      -0.03411731       0.74818807       0.05545308      -1.16348607     -10.80161246
W       10.27033520       1.83861864      -0.04672886       0.78966244       0.26319101       1.74971890     -11.08624084
W       11.55086231       0.09737964       2.28826880      -0.29282736      -0.25194597      -1.26608973     -11.05007960
W        9.05793762       0.94130719       2.31114078      -0.24605004      -0.34779497      -1.94062273     -11.11813603
W       14.04873657       2.10366702       2.01999617      -1.44573812       0.75853646      -1.98898077     -10.03928583
12
Lattice="15.581192970275879 1.652635097503662 3.1485321521759033 0.0 2.75439190864563 0.0 0.0 0.0 4.497902870178223" Properties=species:S:1:pos:R:3:forces:R:3:energies:R:1 original_dataset_index=6189 energy=-128.53061069169928 pbc="F F F"
W       -0.34493649      -0.73747337       0.75527203       4.61421966      -0.14136772      -3.83664157     -10.31941650
W        5.29592705       0.82645720      -0.09750706      -1.24803721      -0.08815616       0.25785861     -10.98746256
W        2.56810284       1.72844350       0.16568506       1.57458728       1.15487476       2.38294507     -10.49972739
W        3.88701701      -0.04028442       2.25924039       0.70027679      -0.31176874       0.36911358     -11.12748121
W        1.29824781       0.95104635       2.77991223       3.00251391      -0.94559255      -2.38012174     -10.03459331
W        6.58052015       1.68630302       2.09395528      -1.32770919       0.79387483       1.09789564     -11.15463480
W        7.84908772      -0.05483339      -0.09295448      -0.60016138      -0.17420932       0.68080560     -11.13401735
W       12.87734604       1.25538266      -0.37062040      -1.69549515       0.74638399       1.43939535     -10.31206630
W       10.38166809       1.94255829       0.08421060      -0.20709512      -0.19314881      -1.54965186     -11.09993325
W       11.70674419       0.22097450       2.18055224      -0.67758781      -0.50959872      -1.90610954     -10.64084637
W        9.04088306       0.84835422       2.27171874       1.56557606       0.67538111      -0.66625442     -11.01558891
W       14.55595589       2.39063883       1.46424437      -5.70108867      -1.00667277       4.11076514     -10.20484273
12
Lattice="29.082977294921875 0.0 0.0 0.0 3.180497646331787 0.0 0.0 0.0 3.180497646331787" Properties=species:S:1:pos:R:3:forces:R:3:energies:R:1 original_dataset_index=2094 energy=-129.24377253687067 pbc="F F F"
W        0.13576387      -0.13935438      -0.10425755      -0.33208048      -0.28643710      -0.32938811      -9.14603979
W        1.50069308       1.39011085       1.42409587       0.66489367       0.57141097       0.32218691     -10.86647445
W        3.19051623      -0.13316308      -0.15949793      -0.71890008       0.02508533       0.13621626     -11.12964145
W        4.69837570       1.50076950       1.44937599       0.78649910       0.02141531       0.11508366     -11.13882684
W        6.34576893      -0.02665947      -0.09422610      -0.07592626      -0.31929522      -0.01368732     -11.18072079
W        7.92570877       1.56631970       1.53648305       0.22661206       0.06764250       0.10443169     -11.17159335
W        9.57288361      -0.00953217       0.00609669      -0.60680747       0.23844805       0.54296726     -11.15963860
W       11.14610291       1.63042295       1.74379158       0.17399194       0.16972419      -0.72456095     -11.14250513
W       12.74843693       0.12797502       0.17820536       0.24582159      -0.58120052      -0.30161054     -11.16324717
W       14.34554195       1.69714499       1.74503660      -0.31115714       0.36176816      -0.18040687     -11.14290056
W       15.97055817       0.15584140       0.08835137       0.00148982      -0.08501083       0.51878696     -10.91338689
W       17.37606621       1.78161705       1.72803736      -0.05443635      -0.18355057      -0.19001887      -9.08879754
1
Lattice="3.271833658218384 0.0 0.0 -0.027980823069810867 3.1901988983154297 0.0 1.6948974132537842 1.5003477334976196 1.6374458074569702" Properties=species:S:1:pos:R:3:forces:R:3:energies:R:1 original_dataset_index=48 energy=-11.102360209460162 pbc="F F F"
W        0.00000000       0.00000000       0.00000000      -0.00000000      -0.00000000      -0.00000000     -11.10236021
12
Lattice="13.493709564208984 1.3493709564208984 1.5902488231658936 0.0 4.497902870178223 0.0 0.0 0.0 3.180497646331787" Properties=species:S:1:pos:R:3:forces:R:3:energies:R:1 original_dataset_index=4158 energy=-128.20739499264033 pbc="F F F"
W        0.00314912      -0.54591411       0.13177657       0.58104592       3.87085500       0.01992533     -10.47767044
W        2.42586231       2.16360641       0.02533406      -3.53888221       1.07283587      -0.76006802     -10.72297203
W        2.31721282       0.14108397       1.65890753      -1.46559344      -2.88060393      -1.11602554     -10.89515342
W       -0.04673417       2.00934696       1.72456908       0.64901376      -0.96273168      -0.22666923     -10.38970123
W        4.47274733      -0.15683930      -0.21861260       1.37940582       2.90637492       1.98896457     -10.82148882
W        6.89590406       2.47191477       0.13709682      -1.37361595      -3.46795754      -1.43857666     -10.73890425
W        6.79766750      -0.08746304       1.71303332      -0.38972986       3.62293829      -1.33832226     -10.69548733
W        4.41762972       2.31548429       1.41025817       3.59334965      -1.94496708       1.59820952     -10.71359903
W        9.02265930       0.18841298      -0.05989807      -2.21481137      -0.49331463       0.91161732     -10.98791329
W       11.01919556       2.40225506      -0.07353602       4.12064623      -0.25954728       0.15143534     -10.33772260
W       11.01521015       0.17442100       1.56359923       3.01001332      -1.13777226      -0.46958442     -10.66955472
W        9.12804222       2.41740012       1.52896523      -4.35084271      -0.32610942       0.67909401     -10.75722782
12
Lattice="15.529081344604492 2.196143865585327 0.0 0.0 2.7451796531677246 0.0 0.0 0.0 4.4828596115112305" Properties=species:S:1:pos:R:3:forces:R:3:energies:R:1 original_dataset_index=8258 energy=-133.08639805849344 pbc="F F F"
W       -0.02428803       0.24303156       0.17739020       0.09798318      -0.00791539      -1.99796968     -11.17920057
W        5.15448761       1.12349761       0.15045013       0.23696408      -0.77287480      -1.14014850     -11.10410505
W        2.58502007       2.01150894      -0.07597028      -0.43606111       0.68355588       2.10219361     -11.10666267
W        3.85478902       0.22486933       2.31644130       0.27897061      -0.35522338      -0.65956060     -11.18773772
W        1.25171840       1.18642318       2.24394011       0.63364162      -0.69973499       0.98337172     -11.03632754
W        6.46846581       1.90406847       2.34004927       0.02269122       0.13442236      -0.04752701     -11.08760895
W        7.79265451      -0.01999955       0.05505588      -0.44589157      -0.17817572      -1.09833884     -11.08830547
W       12.94372082       0.67677039      -0.03875075       0.05712230      -0.47149386       0.15892243     -10.99378524
W       10.40759563       1.57171738      -0.27649522      -0.45438031       0.98391485       2.18513191     -11.10668310
W       11.66800117      -0.19260938       2.04739618      -0.24929684      -0.57173694       0.83598631     -11.15576166
W        9.07956982       0.76924437       2.13553023       0.08022316       0.25334398       0.04912716     -10.97354109
W       14.22821522       1.48219669       2.37354231       0.17803362       1.00191808      -1.37118853     -11.06667899
12
Lattice="15.529081344604492 2.196143865585327 0.0 0.0 2.7451796531677246 0.0 0.0 0.0 4.4828596115112305" Properties=species:S:1:pos:R:3:forces:R:3:energies:R:1 original_dataset_index=8262 energy=-132.95771664090373 pbc="F F F"
W        0.00332595       0.27261829       0.09099155      -0.53037248       0.04422646      -1.38796873     -11.00320363
W        5.12793350       1.23530138       0.19600607      -0.08558637      -1.17513465      -1.91175908     -11.10258162
W        2.52541494       2.08686614      -0.08837616       0.33656530      -0.06770382       2.18091435     -11.13553238
W        3.79714131       0.25228256       2.33566499       0.91348068       0.05714372      -0.87286769     -11.11278129
W        1.25082469       1.11717486       2.20399332       0.31687746       0.80647955       0.88675123     -11.13555797
W        6.45780325       2.00137091       2.29613423      -0.44183675      -0.91607996       0.43770354     -10.84926871
W        7.79981947      -0.17043658      -0.01581468       0.27115953       0.96617463       0.35876336     -10.91097397
W       12.96945381       0.62236702      -0.02436385       0.10656327       0.58929563      -0.39133451     -11.18171792
W       10.42418671       1.58778262      -0.13134860      -0.50595609      -0.44319606       0.36041853     -11.17695359
W       11.72598076      -0.29040030       2.06621003      -1.12013830       0.40325926       1.88650168     -11.04991817
W        9.10520935       0.61436707       2.19624639       0.20024979       1.04163716      -0.48450614     -11.16545975
W       14.22285557       1.65142500       2.32323599       0.53899357      -1.30610270      -1.06261582     -11.13376763
12
Lattice="15.581192970275879 1.652635097503662 3.5983223915100098 0.0 2.75439190864563 0.0 0.0 0.0 4.497902870178223" Properties=species:S:1:pos:R:3:forces:R:3:energies:R:1 original_dataset_index=6215 energy=-125.9509725500199 pbc="F F F"
W       -0.18446007      -0.49362770       0.79685950       3.43323140      -2.32597516      -5.37332833     -10.02366033
W        5.27465677       1.03818059       0.09909235      -0.83562865      -0.05669527      -1.16330499     -10.85819772
W        2.39040327       1.36468434       0.04532800       4.97012933      -0.36815417       7.62030630      -9.79637933
W        3.96765685       0.19829005       2.22810411       0.08157514      -0.54483756       1.07861630     -10.80195161
W        1.44594085      -0.05377600       2.98582101      -2.66992027       0.17676998      -7.15525124      -9.30771725
W        6.49459934       1.96029162       2.30964446       0.41735438      -0.27123441      -0.39221517     -11.13515609
W        7.79910231       0.01947091      -0.04038212      -0.17033943       1.27692251       1.74238991     -10.93719832
W       12.89968586       1.35782397      -0.50499213      -0.68435091       0.01808504      -0.90959020     -10.54432820
W       10.40612221       2.18523192      -0.14906169      -1.79987896      -1.31003304      -2.82197422     -10.61044184
W       11.62740612       0.39078370       1.63131428       2.42011283       0.07906212       5.13169466     -10.56343873
W        9.07205296       1.01268399       2.32385111      -0.10012871       0.65262163      -2.57169160     -11.06671442
W       14.50339699       2.03752995       1.76813030      -5.06215578       2.67346836       4.81434832     -10.30578870
12
Lattice="15.529081344604492 2.196143865585327 0.896571934223175 0.0 2.7451796531677246 0.0 0.0 0.0 4.4828596115112305" Properties=species:S:1:pos:R:3:forces:R:3:energies:R:1 original_dataset_index=8267 energy=-131.22219946369884 pbc="F F F"
W       -0.23913001       0.44512379      -0.49505919       2.36862837      -1.81282718       4.71751410     -10.59954960
W        5.25081348       0.87024420      -0.10690802      -0.74730044       0.19169901       1.19382334     -11.17152485
W        2.64828587       1.78949380       0.00581912      -0.44102353       0.69895439      -1.34545274     -10.91733257
W        3.99020147      -0.05025101       2.17162681      -0.73959508       0.27999330       0.21095609     -11.15910630
W        1.29531002       1.04074919       2.14884663       2.01772497       0.22781232      -1.58126923     -10.59713226
W        6.57036734       1.82658911       2.21818137      -1.42548666      -0.17631555       0.43333127     -11.12233499
W        7.74425316       0.00136078       0.08334769       0.63906817      -0.08854057      -1.66526702     -11.11973344
W       12.86901665       0.79714209       0.10343930      -1.57475115       0.00632839       1.86435650     -10.61541738
W       10.24764252       1.85492373      -0.02064976       1.14638380      -0.32086484       0.86272670     -11.17793143
W       11.58792400       0.00807295       2.25448227       0.47828738      -0.66367668       0.65888458     -10.94127096
W        9.04143238       0.92032421       2.27755332       0.39002046       0.10510683      -0.25695452     -11.15175782
W       14.40383339       1.47694623       2.80789971      -2.11195591       1.55233041      -5.09264904     -10.64910785
12
Lattice="15.581192970275879 1.652635097503662 4.048112869262695 0.0 2.75439190864563 0.0 0.0 0.0 4.497902870178223" Properties=species:S:1:pos:R:3:forces:R:3:energies:R:1 original_dataset_index=6234 energy=-131.2057558663543 pbc="F F F"
W        0.00772031      -0.24463254       0.24854121       1.28389301      -1.43400139      -1.25851094     -10.67317188
W        5.23408508       0.86337936       0.20809248      -0.35021530      -0.13471110      -2.33247003     -11.03933462
W        2.60525250       1.46013856       0.16489217       0.25602292       1.61209078      -1.31728887     -11.00454649
W        3.86532950      -0.22589290       2.26516175       0.68595742       0.44389545       2.76810875     -11.06710980
W        1.39940000       0.66941655       2.39983320      -0.46368699      -0.03969114       0.70160496     -10.84114279
W        6.46736479       1.94534516       2.37031579       0.34288309      -1.01283635      -1.11567826     -11.00038060
W        7.80008078       0.11472668      -0.10913948       0.08391106      -0.06980797       1.72878065     -11.03655917
W       12.92761898       1.18844032      -0.23703566      -0.76901818      -1.00932068      -0.03008446     -10.81534132
W       10.37014580       1.98663402       0.06889780      -0.25200215       0.43964384      -4.14548662     -10.99874225
W       11.66386986       0.24617346       2.02820206       0.36679957      -0.53797926       2.19977080     -11.07196693
W        9.07446575       1.05660212       2.11360431      -0.21276574       0.08490007       1.90067805     -11.01586902
W       14.28122902       1.95723641       1.97234356      -0.97177799       1.65781701       0.90057570     -10.64159098
12
Lattice="13.493709564208984 1.3493709564208984 2.226348400115967 0.0 4.497902870178223 0.0 0.0 0.0 3.180497646331787" Properties=species:S:1:pos:R:3:forces:R:3:energies:R:1 original_dataset_index=4191 energy=-127.35933441460342 pbc="F F F"